Siesta Version  : 4.1.5
Architecture    : unknown
Compiler version: GNU Fortran (conda-forge gcc 12.3.0-5) 12.3.0
Compiler flags  : x86_64-conda-linux-gnu-gfortran -march=nocona -mtune=haswell -ftree-vectorizee -fPIC -fstack-protector-strong -fno-plt -O2 -ffunction-sections -pipe  -fallow-argument-mismatch
PP flags        : -DFC_HAVE_ABORT -DCDF -DNCDF -DNCDF_4
Libraries       : libncdf.a libfdict.a -llapack -lblas -lnetcdff -lnetcdf -lhdf5_hl -lhdf5 -lz
SERIAL version
NetCDF support
NetCDF-4 support

* Running in serial mode
>> Start of run:  22-APR-2024  12:59:20

                           ***********************       
                           *  WELCOME TO SIESTA  *       
                           ***********************       

reinit: Reading from standard input
reinit: Dumped input in INPUT_TMP.71203
************************** Dump of input data file ****************************
LatticeConstant 1.0 Ang
%block LatticeVectors
 2.13000000 -1.22975607 0.00000000
 2.13000000 1.22975607 0.00000000
 0.00000000 0.00000000 14.20000000
%endblock LatticeVectors
NumberOfAtoms 2
AtomicCoordinatesFormat Ang
%block AtomicCoordinatesAndAtomicSpecies
 0.00000000 0.00000000 0.00000000 1 # 1: B
 1.42000000 0.00000000 0.00000000 1 # 2: N
%endblock AtomicCoordinatesAndAtomicSpecies
NumberOfSpecies 2
%block ChemicalSpeciesLabel
 1 5 B
 2 7 N
%endblock ChemicalSpeciesLabel
%block kgrid.MonkhorstPack
   9 0 0  0
   0 9 0  0
   0 0 1  0
%endblock kgrid.MonkhorstPack
TS.HS.Save true
SaveRho true
************************** End of input data file *****************************

reinit: -----------------------------------------------------------------------
reinit: System Name: 
reinit: -----------------------------------------------------------------------
reinit: System Label: siesta
reinit: -----------------------------------------------------------------------

initatom: Reading input for the pseudopotentials and atomic orbitals ----------
Species number:   1 Atomic number:    5 Label: B
Species number:   2 Atomic number:    7 Label: N

Ground state valence configuration:   2s02  2p01
Reading pseudopotential information in formatted form from B.psf

Valence configuration for pseudopotential generation:
2s( 2.00) rc: 1.74
2p( 1.00) rc: 1.74
3d( 0.00) rc: 1.74
4f( 0.00) rc: 1.74
Ground state valence configuration:   2s02  2p03
Reading pseudopotential information in formatted form from N.psf

Valence configuration for pseudopotential generation:
2s( 2.00) rc: 1.48
2p( 3.00) rc: 1.48
3d( 0.00) rc: 1.48
4f( 0.00) rc: 1.48
For B, standard SIESTA heuristics set lmxkb to 3
 (one more than the basis l, including polarization orbitals).
Use PS.lmax or PS.KBprojectors blocks to override.
For N, standard SIESTA heuristics set lmxkb to 3
 (one more than the basis l, including polarization orbitals).
Use PS.lmax or PS.KBprojectors blocks to override.

<basis_specs>
===============================================================================
B                    Z=   5    Mass=  10.810        Charge= 0.17977+309
Lmxo=1 Lmxkb= 3    BasisType=split      Semic=F
L=0  Nsemic=0  Cnfigmx=2
          i=1  nzeta=2  polorb=0  (2s)
            splnorm:   0.15000    
               vcte:    0.0000    
               rinn:    0.0000    
               qcoe:    0.0000    
               qyuk:    0.0000    
               qwid:   0.10000E-01
                rcs:    0.0000      0.0000    
            lambdas:    1.0000      1.0000    
L=1  Nsemic=0  Cnfigmx=2
          i=1  nzeta=2  polorb=1  (2p)
            splnorm:   0.15000    
               vcte:    0.0000    
               rinn:    0.0000    
               qcoe:    0.0000    
               qyuk:    0.0000    
               qwid:   0.10000E-01
                rcs:    0.0000      0.0000    
            lambdas:    1.0000      1.0000    
-------------------------------------------------------------------------------
L=0  Nkbl=1  erefs: 0.17977+309
L=1  Nkbl=1  erefs: 0.17977+309
L=2  Nkbl=1  erefs: 0.17977+309
L=3  Nkbl=1  erefs: 0.17977+309
===============================================================================
</basis_specs>

atom: Called for B                     (Z =   5)

read_vps: Pseudopotential generation method:
read_vps: ATM3      Troullier-Martins                       
Valence charge for ps generation:    3.00000

read_vps: Pseudopotential includes a core correction:
read_vps: Pseudo-core for xc-correction

xc_check: Exchange-correlation functional:
xc_check: Ceperley-Alder
xc_check: WARNING: Pseudopotential generated with GGA PBE functional
V l=0 = -2*Zval/r beyond r=  1.7165
V l=1 = -2*Zval/r beyond r=  1.7165
V l=2 = -2*Zval/r beyond r=  1.7165
V l=3 = -2*Zval/r beyond r=  1.6951
All V_l potentials equal beyond r=  1.7165
This should be close to max(r_c) in ps generation
All pots = -2*Zval/r beyond r=  1.7165

VLOCAL1: 99.0% of the norm of Vloc inside     14.733 Ry
VLOCAL1: 99.9% of the norm of Vloc inside     33.577 Ry
atom: Maximum radius for 4*pi*r*r*local-pseudopot. charge    2.04484
atom: Maximum radius for r*vlocal+2*Zval:    1.75994
GHOST: No ghost state for L =  0
GHOST: No ghost state for L =  1
GHOST: No ghost state for L =  2
GHOST: No ghost state for L =  3

KBgen: Kleinman-Bylander projectors: 
   l= 0   rc=  1.897051   el= -0.692718   Ekb=  4.580259   kbcos=  0.287807
   l= 1   rc=  1.920920   el= -0.270232   Ekb= -2.346080   kbcos= -0.319265
   l= 2   rc=  2.044840   el=  0.002410   Ekb= -0.691532   kbcos= -0.014059
   l= 3   rc=  2.149707   el=  0.003543   Ekb= -0.315872   kbcos= -0.002077

KBgen: Total number of Kleinman-Bylander projectors:   16
atom: -------------------------------------------------------------------------

atom: SANKEY-TYPE ORBITALS:
atom: Selected multiple-zeta basis: split     

SPLIT: Orbitals with angular momentum L= 0

SPLIT: Basis orbitals for state 2s

SPLIT: PAO cut-off radius determined from an
SPLIT: energy shift=  0.020000 Ry

   izeta = 1
                 lambda =    1.000000
                     rc =    4.906010
                 energy =   -0.675305
                kinetic =    0.604547
    potential(screened) =   -1.279852
       potential(ionic) =   -3.303890

   izeta = 2
                 rmatch =    4.170113
              splitnorm =    0.150000
                 energy =   -0.585179
                kinetic =    0.887526
    potential(screened) =   -1.472705
       potential(ionic) =   -3.607569

SPLIT: Orbitals with angular momentum L= 1

SPLIT: Basis orbitals for state 2p

SPLIT: PAO cut-off radius determined from an
SPLIT: energy shift=  0.020000 Ry

   izeta = 1
                 lambda =    1.000000
                     rc =    5.700051
                 energy =   -0.250627
                kinetic =    1.602188
    potential(screened) =   -1.852815
       potential(ionic) =   -3.805735

   izeta = 2
                 rmatch =    4.275693
              splitnorm =    0.150000
                 energy =   -0.135996
                kinetic =    2.423812
    potential(screened) =   -2.559808
       potential(ionic) =   -4.695995

POLgen: Perturbative polarization orbital with L=  2

POLgen: Polarization orbital for state 2p

   izeta = 1
                     rc =    5.700051
                 energy =    0.830212
                kinetic =    1.744451
    potential(screened) =   -0.914239
       potential(ionic) =   -2.616970
atom: Total number of Sankey-type orbitals: 13

atm_pop: Valence configuration (for local Pseudopot. screening):
 2s( 2.00)                                                            
 2p( 1.00)                                                            
Vna: chval, zval:    3.00000   3.00000

Vna:  Cut-off radius for the neutral-atom potential:   5.700051
comcore: Pseudo-core radius Rcore=  2.122997

atom: _________________________________________________________________________

<basis_specs>
===============================================================================
N                    Z=   7    Mass=  14.010        Charge= 0.17977+309
Lmxo=1 Lmxkb= 3    BasisType=split      Semic=F
L=0  Nsemic=0  Cnfigmx=2
          i=1  nzeta=2  polorb=0  (2s)
            splnorm:   0.15000    
               vcte:    0.0000    
               rinn:    0.0000    
               qcoe:    0.0000    
               qyuk:    0.0000    
               qwid:   0.10000E-01
                rcs:    0.0000      0.0000    
            lambdas:    1.0000      1.0000    
L=1  Nsemic=0  Cnfigmx=2
          i=1  nzeta=2  polorb=1  (2p)
            splnorm:   0.15000    
               vcte:    0.0000    
               rinn:    0.0000    
               qcoe:    0.0000    
               qyuk:    0.0000    
               qwid:   0.10000E-01
                rcs:    0.0000      0.0000    
            lambdas:    1.0000      1.0000    
-------------------------------------------------------------------------------
L=0  Nkbl=1  erefs: 0.17977+309
L=1  Nkbl=1  erefs: 0.17977+309
L=2  Nkbl=1  erefs: 0.17977+309
L=3  Nkbl=1  erefs: 0.17977+309
===============================================================================
</basis_specs>

atom: Called for N                     (Z =   7)

read_vps: Pseudopotential generation method:
read_vps: ATM3      Troullier-Martins                       
Valence charge for ps generation:    5.00000

read_vps: Pseudopotential includes a core correction:
read_vps: Pseudo-core for xc-correction

xc_check: Exchange-correlation functional:
xc_check: Ceperley-Alder
xc_check: WARNING: Pseudopotential generated with GGA PBE functional
V l=0 = -2*Zval/r beyond r=  1.4606
V l=1 = -2*Zval/r beyond r=  1.4606
V l=2 = -2*Zval/r beyond r=  1.4606
V l=3 = -2*Zval/r beyond r=  1.4606
All V_l potentials equal beyond r=  1.4606
This should be close to max(r_c) in ps generation
All pots = -2*Zval/r beyond r=  1.4606

VLOCAL1: 99.0% of the norm of Vloc inside     20.347 Ry
VLOCAL1: 99.9% of the norm of Vloc inside     46.372 Ry
atom: Maximum radius for 4*pi*r*r*local-pseudopot. charge    1.76189
atom: Maximum radius for r*vlocal+2*Zval:    1.53550
GHOST: No ghost state for L =  0
GHOST: No ghost state for L =  1
GHOST: No ghost state for L =  2
GHOST: No ghost state for L =  3

KBgen: Kleinman-Bylander projectors: 
   l= 0   rc=  1.634559   el= -1.348537   Ekb=  5.297520   kbcos=  0.333054
   l= 1   rc=  1.614250   el= -0.512415   Ekb= -5.262296   kbcos= -0.428933
   l= 2   rc=  1.718383   el=  0.002346   Ekb= -1.271998   kbcos= -0.007619
   l= 3   rc=  1.761893   el=  0.003449   Ekb= -0.494630   kbcos= -0.001017

KBgen: Total number of Kleinman-Bylander projectors:   16
atom: -------------------------------------------------------------------------

atom: SANKEY-TYPE ORBITALS:
atom: Selected multiple-zeta basis: split     

SPLIT: Orbitals with angular momentum L= 0

SPLIT: Basis orbitals for state 2s

SPLIT: PAO cut-off radius determined from an
SPLIT: energy shift=  0.020000 Ry

   izeta = 1
                 lambda =    1.000000
                     rc =    3.683980
                 energy =   -1.330014
                kinetic =    1.203086
    potential(screened) =   -2.533100
       potential(ionic) =   -8.093205

   izeta = 2
                 rmatch =    2.905100
              splitnorm =    0.150000
                 energy =   -1.134717
                kinetic =    1.810562
    potential(screened) =   -2.945280
       potential(ionic) =   -8.899916

SPLIT: Orbitals with angular momentum L= 1

SPLIT: Basis orbitals for state 2p

SPLIT: PAO cut-off radius determined from an
SPLIT: energy shift=  0.020000 Ry

   izeta = 1
                 lambda =    1.000000
                     rc =    4.388595
                 energy =   -0.493943
                kinetic =    3.501321
    potential(screened) =   -3.995264
       potential(ionic) =   -9.374806

   izeta = 2
                 rmatch =    2.978652
              splitnorm =    0.150000
                 energy =   -0.289183
                kinetic =    5.180785
    potential(screened) =   -5.469968
       potential(ionic) =  -11.438899

POLgen: Perturbative polarization orbital with L=  2

POLgen: Polarization orbital for state 2p

   izeta = 1
                     rc =    4.388595
                 energy =    1.759924
                kinetic =    3.542120
    potential(screened) =   -1.782196
       potential(ionic) =   -6.226799
atom: Total number of Sankey-type orbitals: 13

atm_pop: Valence configuration (for local Pseudopot. screening):
 2s( 2.00)                                                            
 2p( 3.00)                                                            
Vna: chval, zval:    5.00000   5.00000

Vna:  Cut-off radius for the neutral-atom potential:   4.388595
comcore: Pseudo-core radius Rcore=  1.554824

atom: _________________________________________________________________________

prinput: Basis input ----------------------------------------------------------

PAO.BasisType split     

%block ChemicalSpeciesLabel
    1    5 B                       # Species index, atomic number, species label
    2    7 N                       # Species index, atomic number, species label
%endblock ChemicalSpeciesLabel

%block PAO.Basis                 # Define Basis set
B                     2                    # Species label, number of l-shells
 n=2   0   2                         # n, l, Nzeta 
   4.906      4.170   
   1.000      1.000   
 n=2   1   2 P   1                   # n, l, Nzeta, Polarization, NzetaPol
   5.700      4.276   
   1.000      1.000   
N                     2                    # Species label, number of l-shells
 n=2   0   2                         # n, l, Nzeta 
   3.684      2.905   
   1.000      1.000   
 n=2   1   2 P   1                   # n, l, Nzeta, Polarization, NzetaPol
   4.389      2.979   
   1.000      1.000   
%endblock PAO.Basis

prinput: ----------------------------------------------------------------------

Dumping basis to NetCDF file B.ion.nc
Dumping basis to NetCDF file N.ion.nc
coor:   Atomic-coordinates input format  =     Cartesian coordinates
coor:                                          (in Angstroms)

siesta: Atomic coordinates (Bohr) and species
siesta:      0.00000   0.00000   0.00000  1        1
siesta:      2.68341   0.00000   0.00000  1        2

siesta: System type = slab      

initatomlists: Number of atoms, orbitals, and projectors:      2    26    32

siesta: ******************** Simulation parameters ****************************
siesta:
siesta: The following are some of the parameters of the simulation.
siesta: A complete list of the parameters used, including default values,
siesta: can be found in file out.fdf
siesta:
redata: Spin configuration                          = none
redata: Number of spin components                   = 1
redata: Time-Reversal Symmetry                      = T
redata: Spin spiral                                 = F
redata: Long output                                 =   F
redata: Number of Atomic Species                    =        2
redata: Charge density info will appear in .RHO file
redata: Write Mulliken Pop.                         = NO
redata: Matel table size (NRTAB)                    =     1024
redata: Mesh Cutoff                                 =   300.0000 Ry
redata: Net charge of the system                    =     0.0000 |e|
redata: Min. number of SCF Iter                     =        0
redata: Max. number of SCF Iter                     =     1000
redata: SCF convergence failure will abort job
redata: SCF mix quantity                            = Hamiltonian
redata: Mix DM or H after convergence               =   F
redata: Recompute H after scf cycle                 =   F
redata: Mix DM in first SCF step                    =   T
redata: Write Pulay info on disk                    =   F
redata: New DM Occupancy tolerance                  = 0.000000000001
redata: No kicks to SCF
redata: DM Mixing Weight for Kicks                  =     0.5000
redata: Require Harris convergence for SCF          =   F
redata: Harris energy tolerance for SCF             =     0.000100 eV
redata: Require DM convergence for SCF              =   T
redata: DM tolerance for SCF                        =     0.000100
redata: Require EDM convergence for SCF             =   F
redata: EDM tolerance for SCF                       =     0.001000 eV
redata: Require H convergence for SCF               =   T
redata: Hamiltonian tolerance for SCF               =     0.001000 eV
redata: Require (free) Energy convergence for SCF   =   F
redata: (free) Energy tolerance for SCF             =     0.000100 eV
redata: Using Saved Data (generic)                  =   F
redata: Use continuation files for DM               =   F
redata: Neglect nonoverlap interactions             =   F
redata: Method of Calculation                       = Diagonalization
redata: Electronic Temperature                      =   299.9869 K
redata: Fix the spin of the system                  =   F
redata: Dynamics option                             = Single-point calculation
mix.SCF: Pulay mixing                            = Pulay
mix.SCF:    Variant                              = stable
mix.SCF:    History steps                        = 2
mix.SCF:    Linear mixing weight                 =     0.250000
mix.SCF:    Mixing weight                        =     0.250000
mix.SCF:    SVD condition                        = 0.1000E-07
redata: Save all siesta data in one NC              =   F
redata: ***********************************************************************

%block SCF.Mixers
  Pulay
%endblock SCF.Mixers

%block SCF.Mixer.Pulay
  # Mixing method
  method pulay
  variant stable

  # Mixing options
  weight 0.2500
  weight.linear 0.2500
  history 2
%endblock SCF.Mixer.Pulay

DM_history_depth set to one: no extrapolation allowed by default for geometry relaxation
Size of DM history Fstack: 1
Total number of electrons:     6.000000
Total ionic charge:     6.000000
 Kpoints in:           45 . Kpoints trimmed:           41

siesta: k-grid: Number of k-points =    41
siesta: k-grid: Cutoff (effective) =     7.100 Ang
siesta: k-grid: Supercell and displacements
siesta: k-grid:    9   0   0      0.000
siesta: k-grid:    0   9   0      0.000
siesta: k-grid:    0   0   1      0.000

diag: Algorithm                                     = D&C
diag: Used triangular part                          = Lower
diag: Absolute tolerance                            =  0.100E-15
diag: Orthogonalization factor                      =  0.100E-05
diag: Memory factor                                 =  1.0000

superc: Internal auxiliary supercell:     7 x     7 x     1  =      49
superc: Number of atoms, orbitals, and projectors:     98   1274   1568


ts: **************************************************************
ts: Save H and S matrices                           =    T
ts: Save DM and EDM matrices                        =    F
ts: Only save the overlap matrix S                  =    F
ts: **************************************************************

************************ Begin: TS CHECKS AND WARNINGS ************************
************************ End: TS CHECKS AND WARNINGS **************************


                     ====================================
                        Single-point calculation
                     ====================================

superc: Internal auxiliary supercell:     7 x     7 x     1  =      49
superc: Number of atoms, orbitals, and projectors:     98   1274   1568

outcell: Unit cell vectors (Ang):
        2.130000   -1.229756    0.000000
        2.130000    1.229756    0.000000
        0.000000    0.000000   14.200000

outcell: Cell vector modules (Ang)   :    2.459512    2.459512   14.200000
outcell: Cell angles (23,13,12) (deg):     90.0000     90.0000     60.0000
outcell: Cell volume (Ang**3)        :     74.3904
<dSpData1D:S at geom step 0
  <sparsity:sparsity for geom step 0
    nrows_g=26 nrows=26 sparsity=27.1627 nnzs=18362, refcount: 7>
  <dData1D:(new from dSpData1D) n=18362, refcount: 1>
refcount: 1>
new_DM -- step:     1
Initializing Density Matrix...
DM filled with atomic data:
<dSpData2D:DM initialized from atoms
  <sparsity:sparsity for geom step 0
    nrows_g=26 nrows=26 sparsity=27.1627 nnzs=18362, refcount: 8>
  <dData2D:DM n=18362 m=1, refcount: 1>
refcount: 1>
No. of atoms with KB's overlaping orbs in proc 0. Max # of overlaps:      24     217
New grid distribution:   1
           1       1:   12    1:   12    1:   75

InitMesh: MESH =    24 x    24 x   150 =       86400
InitMesh: (bp) =    12 x    12 x    75 =       10800
InitMesh: Mesh cutoff (required, used) =   300.000   308.395 Ry
ExtMesh (bp) on 0 =    80 x    80 x   139 =      889600
PhiOnMesh: Number of (b)points on node 0 =                10800
PhiOnMesh: nlist on node 0 =               370822

stepf: Fermi-Dirac step function

siesta: Program's energy decomposition (eV):
siesta: Ebs     =       -49.206079
siesta: Eions   =       255.081330
siesta: Ena     =        62.348831
siesta: Ekin    =       124.571859
siesta: Enl     =         0.569201
siesta: Eso     =         0.000000
siesta: Edftu   =         0.000000
siesta: DEna    =       -16.370196
siesta: DUscf   =         2.595384
siesta: DUext   =         0.000000
siesta: Exc     =      -116.168918
siesta: eta*DQ  =         0.000000
siesta: Emadel  =         0.000000
siesta: Emeta   =         0.000000
siesta: Emolmec =         0.000000
siesta: Ekinion =         0.000000
siesta: Eharris =      -189.831576
siesta: Etot    =      -197.535168
siesta: FreeEng =      -197.536894

        iscf     Eharris(eV)        E_KS(eV)     FreeEng(eV)     dDmax    Ef(eV) dHmax(eV)
   scf:    1     -189.831576     -197.535168     -197.536894  1.838648 -9.461184  6.759457
timer: Routine,Calls,Time,% = IterSCF        1       0.406  19.47
   scf:    2     -198.371304     -197.976853     -197.979053  0.040431 -8.254571  3.953514
   scf:    3     -198.263934     -198.137532     -198.139843  0.052042 -5.921299  0.558469
   scf:    4     -198.130158     -198.138846     -198.145855  0.014664 -5.645985  0.339223
   scf:    5     -198.143009     -198.142141     -198.147280  0.006963 -5.765282  0.058124
   scf:    6     -198.141571     -198.141920     -198.147629  0.001680 -5.752805  0.037813
   scf:    7     -198.141862     -198.141891     -198.147642  0.000181 -5.758267  0.033569
   scf:    8     -198.141529     -198.141723     -198.147651  0.001039 -5.812134  0.015696
   scf:    9     -198.141882     -198.141804     -198.147660  0.000377 -5.796905  0.002592
   scf:   10     -198.141824     -198.141814     -198.147660  0.000063 -5.793317  0.000760

SCF Convergence by DM+H criterion
max |DM_out - DM_in|         :     0.0000633604
max |H_out - H_in|      (eV) :     0.0007600046
SCF cycle converged after 10 iterations

Using DM_out to compute the final energy and forces
No. of atoms with KB's overlaping orbs in proc 0. Max # of overlaps:      24     217

siesta: E_KS(eV) =             -198.1418

siesta: E_KS - E_eggbox =      -198.1418

siesta: Atomic forces (eV/Ang):
----------------------------------------
   Tot    0.000000   -0.000000   -0.000000
----------------------------------------
   Max    0.000000
   Res    0.000000    sqrt( Sum f_i^2 / 3N )
----------------------------------------
   Max    0.000000    constrained

Stress tensor Voigt[x,y,z,yz,xz,xy] (kbar):     -391.37     -391.37       -0.03       -0.00       -0.00       -0.00
(Free)E + p*V (eV/cell)     -186.0328
Target enthalpy (eV/cell)     -198.1477

siesta: Program's energy decomposition (eV):
siesta: Ebs     =       -63.159477
siesta: Eions   =       255.081330
siesta: Ena     =        62.348831
siesta: Ekin    =       116.602073
siesta: Enl     =         1.818387
siesta: Eso     =         0.000000
siesta: Edftu   =         0.000000
siesta: DEna    =       -10.717185
siesta: DUscf   =         1.132100
siesta: DUext   =         0.000000
siesta: Exc     =      -114.244691
siesta: eta*DQ  =         0.000000
siesta: Emadel  =         0.000000
siesta: Emeta   =         0.000000
siesta: Emolmec =         0.000000
siesta: Ekinion =         0.000000
siesta: Eharris =      -198.141824
siesta: Etot    =      -198.141814
siesta: FreeEng =      -198.147660

siesta: Final energy (eV):
siesta:  Band Struct. =     -63.159477
siesta:       Kinetic =     116.602073
siesta:       Hartree =     554.671256
siesta:       Edftu   =       0.000000
siesta:       Eso     =       0.000000
siesta:    Ext. field =       0.000000
siesta:   Exch.-corr. =    -114.244691
siesta:  Ion-electron =   -1205.375833
siesta:       Ion-ion =     450.205381
siesta:       Ekinion =       0.000000
siesta:         Total =    -198.141814
siesta:         Fermi =      -5.793317

siesta: Stress tensor (static) (eV/Ang**3):
siesta:    -0.244274   -0.000000   -0.000000
siesta:    -0.000000   -0.244274    0.000000
siesta:    -0.000000   -0.000000   -0.000017

siesta: Cell volume =         74.390404 Ang**3

siesta: Pressure (static):
siesta:                Solid            Molecule  Units
siesta:           0.00177370          0.00177370  Ry/Bohr**3
siesta:           0.16285526          0.16285526  eV/Ang**3
siesta:         260.92571497        260.92571525  kBar
(Free)E+ p_basis*V_orbitals  =        -197.157176
(Free)Eharris+ p_basis*V_orbitals  =        -197.157186

siesta: Electric dipole (a.u.)  =    0.000000    0.000000   -0.000000
siesta: Electric dipole (Debye) =    0.000000    0.000000   -0.000000

cite: Please see "siesta.bib" for an exhaustive BiBTeX file.
cite: Please clearly indicate Siesta version in published work: 4.1.5
cite: This calculation has made use of the following articles
cite: which are encouraged to be cited in a published work.
        Primary SIESTA paper
          DOI: www.doi.org/10.1088/0953-8984/14/11/302


timer: Elapsed wall time (sec) =       2.983
timer: CPU execution times (sec):

Routine            Calls   Time/call    Tot.time        %
siesta                 1       5.105       5.105    99.99
Setup                  1       1.060       1.060    20.76
bands                  1       0.000       0.000     0.00
KSV_init               1       0.000       0.000     0.00
IterGeom               1       3.965       3.965    77.66
state_init             1       0.065       0.065     1.27
hsparse                1       0.001       0.001     0.02
overlap                1       0.061       0.061     1.19
Setup_H0               1       0.554       0.554    10.85
naefs                  2       0.000       0.000     0.00
MolMec                 2       0.000       0.000     0.00
kinefsm                2       0.030       0.060     1.18
nlefsm                 2       0.151       0.303     5.93
DHSCF_Init             1       0.229       0.229     4.49
DHSCF1                 1       0.015       0.015     0.29
INITMESH               1       0.000       0.000     0.00
DHSCF2                 1       0.214       0.214     4.20
REMESH                 1       0.041       0.041     0.80
REORD                 40       0.000       0.005     0.09
PHION                  1       0.150       0.150     2.93
COMM_BSC              54       0.000       0.005     0.09
POISON                14       0.004       0.050     0.97
fft                   28       0.001       0.037     0.73
IterSCF               10       0.293       2.929    57.38
setup_H               11       0.213       2.340    45.83
DHSCF                 13       0.215       2.793    54.70
DHSCF3                13       0.196       2.547    49.89
rhoofd                13       0.124       1.608    31.49
XC                    13       0.005       0.064     1.26
GXC-CellXC            13       0.005       0.062     1.22
cellXC                13       0.005       0.062     1.22
vmat                  12       0.067       0.805    15.77
compute_dm            10       0.059       0.586    11.47
diagon                10       0.058       0.585    11.46
c-eigval             410       0.000       0.194     3.79
c-buildHS            410       0.000       0.154     3.01
cdiag                820       0.000       0.098     1.93
cdiag1               820       0.000       0.003     0.07
cdiag2               820       0.000       0.022     0.43
cdiag3               820       0.000       0.068     1.33
c-eigvec             410       0.001       0.214     4.19
cdiag4               410       0.000       0.001     0.02
c-buildD             410       0.000       0.174     3.40
MIXER                  9       0.000       0.001     0.02
PostSCF                1       0.416       0.416     8.16
DHSCF4                 1       0.246       0.246     4.81
dfscf                  1       0.225       0.225     4.40
overfsm                1       0.003       0.003     0.05
state_analysis         1       0.000       0.000     0.00
siesta_move            1       0.000       0.000     0.00
Analysis               1       0.081       0.081     1.58
siesta_analysis        1       0.081       0.081     1.58
optical                1       0.000       0.000     0.00
  
>> End of run:  22-APR-2024  12:59:23
Job completed
